version 3
run Ping1-0-20250415-21:15:50-4815
attr configname Ping1
attr datetime 20250415-21:15:50
attr datetimef 20250415-211550
attr experiment Ping1
attr inifile omnetpp.ini
attr iterationvars ""
attr iterationvarsd ""
attr iterationvarsf ""
attr measurement ""
attr network Net80211
attr processid 4815
attr repetition 0
attr replication #0
attr resultdir results
attr runnumber 0
attr seedset 0
config image-path ../../inet4.4/images:../../veins_inet/images:../../veins-veins-5.2/images
config description "host1 pinging host0"
config *.numHosts 2
config network Net80211
config num-rngs 3
config **.mobility.rng-0 1
config **.wlan[*].mac.rng-0 2
config **.constraintAreaMinX 0m
config **.constraintAreaMinY 0m
config **.constraintAreaMinZ 0m
config **.constraintAreaMaxX 600m
config **.constraintAreaMaxY 400m
config **.constraintAreaMaxZ 0m
config **.host*.mobility.typename MassMobility
config **.host*.mobility.initFromDisplayString false
config **.host*.mobility.changeInterval "truncnormal(2s, 0.5s)"
config **.host*.mobility.angleDelta "normal(0deg, 30deg)"
config **.host*.mobility.speed "truncnormal(20mps, 8mps)"
config **.host*.mobility.updateInterval 100ms
config *.host[0].numApps 0
config *.host[*].numApps 2
config *.host[*].app[*].typename PingApp
config *.host[*].app[*].destAddr "\"host[0]\""
config *.host[*].app[0].startTime uniform(1s,5s)
config *.host[*].app[1].startTime 5s+uniform(1s,5s)
config *.host[*].app[*].printPing true
config **.wlan[*].bitrate 2Mbps
config **.wlan[*].mac.dcf.channelAccess.cwMin 7
config **.wlan[*].radio.transmitter.power 2mW
config **.wlan[*].radio.receiver.sensitivity -85dBm
config **.wlan[*].radio.receiver.snirThreshold 4dB

vector 0 Net80211.host[0].wlan[0].mac.dcf frameSequenceActive:vector ETV
attr autoWarmupFilter false
attr interpolationmode sample-hold
attr recordingmode vector
attr source warmup(count(frameSequenceStarted)-count(frameSequenceFinished))
attr title "frame sequence active"
vector 1 Net80211.host[0].wlan[0].mac.dcf.channelAccess.inProgressFrames queueLength:vector ETV
attr autoWarmupFilter false
attr interpolationmode sample-hold
attr recordingmode vector
attr source "warmup(count(packetEnqueued) - count(packetDequeued))"
attr title "queue length"
vector 2 Net80211.host[0].wlan[0].mac.dcf.channelAccess.contention backoffActive:vector ETV
attr autoWarmupFilter false
attr interpolationmode sample-hold
attr recordingmode vector
attr source warmup(count(backoffStarted)-count(backoffStopped))
attr title "backoff active"
vector 3 Net80211.host[0].udp passedUpPk:vector(count) ETV
attr interpolationmode none
attr recordingmode vector(count)
attr source packetSentToUpper
attr title "packets passed up, count"
vector 4 Net80211.host[0].udp droppedPkWrongPort:vector(count) ETV
attr interpolationmode none
attr recordingmode vector(count)
attr source packetDropReasonIsNoPortFound(packetDropped)
attr title "packets dropped (wrong port), count"
vector 5 Net80211.host[0].udp droppedPkBadChecksum:vector(count) ETV
attr interpolationmode none
attr recordingmode vector(count)
attr source packetDropReasonIsIncorrectlyReceived(packetDropped)
attr title "packets dropped (checksum error), count"
vector 6 Net80211.host[1].wlan[0].mac.dcf frameSequenceActive:vector ETV
attr autoWarmupFilter false
attr interpolationmode sample-hold
attr recordingmode vector
attr source warmup(count(frameSequenceStarted)-count(frameSequenceFinished))
attr title "frame sequence active"
vector 7 Net80211.host[1].wlan[0].mac.dcf.channelAccess.inProgressFrames queueLength:vector ETV
attr autoWarmupFilter false
attr interpolationmode sample-hold
attr recordingmode vector
attr source "warmup(count(packetEnqueued) - count(packetDequeued))"
attr title "queue length"
vector 8 Net80211.host[1].wlan[0].mac.dcf.channelAccess.contention backoffActive:vector ETV
attr autoWarmupFilter false
attr interpolationmode sample-hold
attr recordingmode vector
attr source warmup(count(backoffStarted)-count(backoffStopped))
attr title "backoff active"
vector 9 Net80211.host[1].udp passedUpPk:vector(count) ETV
attr interpolationmode none
attr recordingmode vector(count)
attr source packetSentToUpper
attr title "packets passed up, count"
vector 10 Net80211.host[1].udp droppedPkWrongPort:vector(count) ETV
attr interpolationmode none
attr recordingmode vector(count)
attr source packetDropReasonIsNoPortFound(packetDropped)
attr title "packets dropped (wrong port), count"
vector 11 Net80211.host[1].udp droppedPkBadChecksum:vector(count) ETV
attr interpolationmode none
attr recordingmode vector(count)
attr source packetDropReasonIsIncorrectlyReceived(packetDropped)
attr title "packets dropped (checksum error), count"
vector 12 Net80211.host[0].wlan[0].radio radioMode:vector ETV
attr interpolationmode sample-hold
attr recordingmode vector
attr source radioModeChanged
attr title "Radio mode"
vector 13 Net80211.host[0].wlan[0].radio radioChannel:vector ETV
attr interpolationmode sample-hold
attr recordingmode vector
attr source radioChannelChanged
attr title "Radio channel"
vector 14 Net80211.host[1].wlan[0].radio radioMode:vector ETV
attr interpolationmode sample-hold
attr recordingmode vector
attr source radioModeChanged
attr title "Radio mode"
vector 15 Net80211.host[1].wlan[0].radio radioChannel:vector ETV
attr interpolationmode sample-hold
attr recordingmode vector
attr source radioChannelChanged
attr title "Radio channel"
vector 16 Net80211.host[0].wlan[0].radio receptionState:vector ETV
attr interpolationmode sample-hold
attr recordingmode vector
attr source receptionStateChanged
attr title "Radio reception state"
vector 17 Net80211.host[0].wlan[0].mac.dcf.channelAccess.contention stateChanged:vector ETV
attr enum IDLE,DEFER,IFS_AND_BACKOFF
attr interpolationmode none
attr recordingmode vector
attr title "contention state changed"
attr type enum
vector 18 Net80211.host[1].wlan[0].radio receptionState:vector ETV
attr interpolationmode sample-hold
attr recordingmode vector
attr source receptionStateChanged
attr title "Radio reception state"
vector 19 Net80211.host[1].wlan[0].mac.dcf.channelAccess.contention stateChanged:vector ETV
attr enum IDLE,DEFER,IFS_AND_BACKOFF
attr interpolationmode none
attr recordingmode vector
attr title "contention state changed"
attr type enum
vector 20 Net80211.host[0].wlan[0].mac.dcf.recoveryProcedure contentionWindowChanged:vector ETV
attr interpolationmode sample-hold
attr recordingmode vector
attr title "contention window"
vector 21 Net80211.host[1].wlan[0].mac.dcf.recoveryProcedure contentionWindowChanged:vector ETV
attr interpolationmode sample-hold
attr recordingmode vector
attr title "contention window"
0	0	0	0
0	0	0	0
1	0	0	0
1	0	0	0
2	0	0	0
2	0	0	0
3	0	0	0
4	0	0	0
5	0	0	0
6	0	0	0
6	0	0	0
7	0	0	0
7	0	0	0
8	0	0	0
8	0	0	0
9	0	0	0
10	0	0	0
11	0	0	0
12	0	0	0
12	0	0	0
12	0	0	2
13	0	0	0
14	0	0	0
14	0	0	0
14	0	0	2
15	0	0	0
16	0	0	1
17	0	0	0
17	0	0	0
18	0	0	1
19	0	0	0
19	0	0	0
20	0	0	7
21	0	0	7
vector 22 Net80211.host[1].app[0] pingTxSeq:vector ETV
attr interpolationmode none
attr recordingmode vector
attr title "ping tx seq"
vector 23 Net80211.host[1].ipv4.arp arpRequestSent:vector(packetBytes) ETV
attr recordingmode vector(packetBytes)
attr source arpRequestSent
attr title "ARP request sent, packetBytes"
vector 24 Net80211.host[1].wlan[0].mac packetReceivedFromUpper:vector(packetBytes) ETV
attr interpolationmode none
attr recordingmode vector(packetBytes)
attr title "packets received from upper layer, packetBytes"
vector 25 Net80211.host[1].wlan[0].mac.dcf.channelAccess.pendingQueue incomingPacketLengths:vector ETV
attr interpolationmode none
attr recordingmode vector
attr source packetLength(packetPushStarted)
attr title "incoming packet lengths"
attr unit b
vector 26 Net80211.host[1].wlan[0].mac.dcf.channelAccess.pendingQueue incomingDataRate:vector ETV
attr interpolationmode linear
attr recordingmode vector
attr source throughput(packetPushStarted)
attr title "incoming datarate"
attr unit bps
vector 27 Net80211.host[1].wlan[0].mac.dcf.channelAccess.pendingQueue queueLength:vector ETV
attr autoWarmupFilter false
attr interpolationmode sample-hold
attr recordingmode vector
attr source "warmup(atomic(constant0(packetPushEnded) + count(packetPushStarted) - count(packetPulled) - count(packetRemoved) - count(packetDropped)))"
attr title "queue length"
attr unit pk
vector 28 Net80211.host[1].wlan[0].mac.dcf.channelAccess.pendingQueue queueBitLength:vector ETV
attr autoWarmupFilter false
attr interpolationmode sample-hold
attr recordingmode vector
attr source "warmup(atomic(constant0(packetPushEnded) + sum(packetLength(packetPushStarted)) - sum(packetLength(packetPulled)) - sum(packetLength(packetRemoved)) - sum(packetLength(packetDropped))))"
attr title "queue bit length"
attr unit b
vector 29 Net80211.host[1].wlan[0].mac.dcf.channelAccess.contention backoffPeriodGenerated:vector ETV
attr interpolationmode none
attr recordingmode vector
attr title "backoff periods"
vector 30 Net80211.host[1].wlan[0].mac.dcf.channelAccess.pendingQueue queueingTime:vector ETV
attr interpolationmode none
attr recordingmode vector
attr source queueingTime(packetPulled)
attr title "queueing times"
attr unit s
vector 31 Net80211.host[1].wlan[0].mac.dcf.channelAccess.pendingQueue outgoingPacketLengths:vector ETV
attr interpolationmode none
attr recordingmode vector
attr source packetLength(packetPulled)
attr title "outgoing packet lengths"
attr unit b
vector 32 Net80211.host[1].wlan[0].mac.dcf.channelAccess.pendingQueue outgoingDataRate:vector ETV
attr interpolationmode linear
attr recordingmode vector
attr source throughput(packetPulled)
attr title "outgoing datarate"
attr unit bps
vector 33 Net80211.host[1].wlan[0].mac.dcf datarateSelected:vector ETV
attr interpolationmode none
attr recordingmode vector
attr title "datarates selected"
vector 34 Net80211.host[1].wlan[0].mac packetSentToLower:vector(packetBytes) ETV
attr interpolationmode none
attr recordingmode vector(packetBytes)
attr title "packets sent to lower layer, packetBytes"
vector 35 Net80211.host[1].wlan[0].radio transmissionState:vector ETV
attr interpolationmode sample-hold
attr recordingmode vector
attr source transmissionStateChanged
attr title "Radio transmission state"
vector 36 Net80211.host[1].wlan[0].mac.dcf packetSentToPeer:vector(packetBytes) ETV
attr interpolationmode none
attr recordingmode vector(packetBytes)
attr title "packets sent, packetBytes"
vector 37 Net80211.host[1].wlan[0].mac.dcf packetSentToPeerMulticast:vector(packetBytes) ETV
attr interpolationmode none
attr recordingmode vector(packetBytes)
attr source ieee80211Multicast(packetSentToPeer)
attr title "packets sent: multicast, packetBytes"
vector 38 Net80211.host[1].wlan[0].mac.dcf packetSentToPeerBroadcast:vector(packetBytes) ETV
attr interpolationmode none
attr recordingmode vector(packetBytes)
attr source ieee80211Broadcast(packetSentToPeer)
attr title "packets sent: broadcast , packetBytes"
vector 39 Net80211.host[1].wlan[0].mac.dcf packetSentToPeerWithoutRetry:vector(packetBytes) ETV
attr interpolationmode none
attr recordingmode vector(packetBytes)
attr source ieee80211NotRetry(packetSentToPeer)
attr title "packets sent: without retry, packetBytes"
vector 40 Net80211.host[1].wlan[0].mac.dcf.channelAccess.inProgressFrames queueingTime:vector ETV
attr interpolationmode none
attr recordingmode vector
attr source queueingTime(packetDequeued)
attr title "queueing times"
6	72	3.195254009217	1
6	76	3.195702009217	0
6	106	4.195254009217	1
6	110	4.195702009217	0
6	141	5.195254009217	1
6	145	5.195702009217	0
7	72	3.195254009217	1
7	76	3.195702009217	0
7	106	4.195254009217	1
7	110	4.195702009217	0
7	141	5.195254009217	1
7	145	5.195702009217	0
8	70	3.195254009217	1
8	71	3.195254009217	0
8	104	4.195254009217	1
8	105	4.195254009217	0
8	139	5.195254009217	1
8	140	5.195254009217	0
14	73	3.195254009217	3
14	77	3.195702009217	2
14	107	4.195254009217	3
14	111	4.195702009217	2
14	142	5.195254009217	3
14	146	5.195702009217	2
18	73	3.195254009217	0
18	77	3.195702009217	1
18	107	4.195254009217	0
18	111	4.195702009217	1
18	142	5.195254009217	0
18	146	5.195702009217	1
19	70	3.195254009217	0
19	70	3.195254009217	2
19	71	3.195254009217	2
19	71	3.195254009217	0
19	73	3.195254009217	0
19	73	3.195254009217	0
19	77	3.195702009217	0
19	77	3.195702009217	0
19	104	4.195254009217	0
19	104	4.195254009217	2
19	105	4.195254009217	2
19	105	4.195254009217	0
19	107	4.195254009217	0
19	107	4.195254009217	0
19	111	4.195702009217	0
19	111	4.195702009217	0
19	139	5.195254009217	0
19	139	5.195254009217	2
19	140	5.195254009217	2
19	140	5.195254009217	0
19	142	5.195254009217	0
19	142	5.195254009217	0
19	146	5.195702009217	0
19	146	5.195702009217	0
22	66	3.195254009217	0
22	100	4.195254009217	1
22	135	5.195254009217	2
23	68	3.195254009217	28
23	101	4.195254009217	28
23	136	5.195254009217	28
24	70	3.195254009217	36
24	104	4.195254009217	36
24	139	5.195254009217	36
25	70	3.195254009217	512
25	104	4.195254009217	512
25	139	5.195254009217	512
26	70	0.1	0
26	70	0.2	0
26	70	0.3	0
26	70	0.4	0
26	70	0.5	0
26	70	0.6	0
26	70	0.7	0
26	70	0.8	0
26	70	0.9	0
26	70	1	0
26	70	1.1	0
26	70	1.2	0
26	70	1.3	0
26	70	1.4	0
26	70	1.5	0
26	70	1.6	0
26	70	1.7	0
26	70	1.8	0
26	70	1.9	0
26	70	2	0
26	70	2.1	0
26	70	2.2	0
26	70	2.3	0
26	70	2.4	0
26	70	2.5	0
26	70	2.6	0
26	70	2.7	0
26	70	2.8	0
26	70	2.9	0
26	70	3	0
26	70	3.1	0
26	104	3.2	5120
26	104	3.3	0
26	104	3.4	0
26	104	3.5	0
26	104	3.6	0
26	104	3.7	0
26	104	3.8	0
26	104	3.9	0
26	104	4	0
26	104	4.1	0
26	139	4.2	5120
26	139	4.3	0
26	139	4.4	0
26	139	4.5	0
26	139	4.6	0
26	139	4.7	0
26	139	4.8	0
26	139	4.9	0
26	139	5	0
26	139	5.1	0
27	70	3.195254009217	1
27	72	3.195254009217	0
27	104	4.195254009217	1
27	106	4.195254009217	0
27	139	5.195254009217	1
27	141	5.195254009217	0
28	70	3.195254009217	512
28	72	3.195254009217	0
28	104	4.195254009217	512
28	106	4.195254009217	0
28	139	5.195254009217	512
28	141	5.195254009217	0
29	70	3.195254009217	5
29	104	4.195254009217	0
29	139	5.195254009217	3
30	72	3.195254009217	0
30	106	4.195254009217	0
30	141	5.195254009217	0
31	72	3.195254009217	512
31	106	4.195254009217	512
31	141	5.195254009217	512
32	72	0.1	0
32	72	0.2	0
32	72	0.3	0
32	72	0.4	0
32	72	0.5	0
32	72	0.6	0
32	72	0.7	0
32	72	0.8	0
32	72	0.9	0
32	72	1	0
32	72	1.1	0
32	72	1.2	0
32	72	1.3	0
32	72	1.4	0
32	72	1.5	0
32	72	1.6	0
32	72	1.7	0
32	72	1.8	0
32	72	1.9	0
32	72	2	0
32	72	2.1	0
32	72	2.2	0
32	72	2.3	0
32	72	2.4	0
32	72	2.5	0
32	72	2.6	0
32	72	2.7	0
32	72	2.8	0
32	72	2.9	0
32	72	3	0
32	72	3.1	0
32	106	3.2	5120
32	106	3.3	0
32	106	3.4	0
32	106	3.5	0
32	106	3.6	0
32	106	3.7	0
32	106	3.8	0
32	106	3.9	0
32	106	4	0
32	106	4.1	0
32	141	4.2	5120
32	141	4.3	0
32	141	4.4	0
32	141	4.5	0
32	141	4.6	0
32	141	4.7	0
32	141	4.8	0
32	141	4.9	0
32	141	5	0
32	141	5.1	0
33	72	3.195254009217	2000000
33	106	4.195254009217	2000000
33	141	5.195254009217	2000000
34	72	3.195254009217	64
34	106	4.195254009217	64
34	141	5.195254009217	64
35	73	3.195254009217	1
35	74	3.195254009217	2
35	76	3.195702009217	1
35	77	3.195702009217	0
35	107	4.195254009217	1
35	108	4.195254009217	2
35	110	4.195702009217	1
35	111	4.195702009217	0
35	142	5.195254009217	1
35	143	5.195254009217	2
35	145	5.195702009217	1
35	146	5.195702009217	0
36	76	3.195702009217	64
36	110	4.195702009217	64
36	145	5.195702009217	64
37	76	3.195702009217	64
37	110	4.195702009217	64
37	145	5.195702009217	64
38	76	3.195702009217	64
38	110	4.195702009217	64
38	145	5.195702009217	64
39	76	3.195702009217	64
39	110	4.195702009217	64
39	145	5.195702009217	64
40	76	3.195702009217	0.000448
40	110	4.195702009217	0.000448
40	145	5.195702009217	0.000448
vector 41 Net80211.host[1].ipv4.ip packetDropAddressResolutionFailed:vector(packetBytes) ETV
attr interpolationmode none
attr recordingmode vector(packetBytes)
attr source packetDropReasonIsAddressResolutionFailed(packetDropped)
attr title "packet drop: address resolution failed, packetBytes"
vector 42 Net80211.host[1].app[1] pingTxSeq:vector ETV
attr interpolationmode none
attr recordingmode vector
attr title "ping tx seq"
vector 43 Net80211.host[0].wlan[0].mac packetReceivedFromLower:vector(packetBytes) ETV
attr interpolationmode none
attr recordingmode vector(packetBytes)
attr title "packets received from lower layer, packetBytes"
vector 44 Net80211.host[0].wlan[0].mac.dcf packetReceivedFromPeer:vector(packetBytes) ETV
attr interpolationmode none
attr recordingmode vector(packetBytes)
attr title "packets received, packetBytes"
vector 45 Net80211.host[0].wlan[0].mac.dcf packetReceivedFromPeerMulticast:vector(packetBytes) ETV
attr interpolationmode none
attr recordingmode vector(packetBytes)
attr source ieee80211Multicast(packetReceivedFromPeer)
attr title "packets received: multicast, packetBytes"
vector 46 Net80211.host[0].wlan[0].mac.dcf packetReceivedFromPeerBroadcast:vector(packetBytes) ETV
attr interpolationmode none
attr recordingmode vector(packetBytes)
attr source ieee80211Broadcast(packetReceivedFromPeer)
attr title "packets received: broadcast, packetBytes"
vector 47 Net80211.host[0].wlan[0].mac.dcf packetReceivedFromPeerWithoutRetry:vector(packetBytes) ETV
attr interpolationmode none
attr recordingmode vector(packetBytes)
attr source ieee80211NotRetry(packetReceivedFromPeer)
attr title "packets received: without retry, packetBytes"
vector 48 Net80211.host[0].wlan[0].mac packetSentToUpper:vector(packetBytes) ETV
attr interpolationmode none
attr recordingmode vector(packetBytes)
attr title "packets sent to upper layer, packetBytes"
vector 49 Net80211.host[0].ipv4.arp arpReplySent:vector(packetBytes) ETV
attr recordingmode vector(packetBytes)
attr source arpReplySent
attr title "ARP replies sent, packetBytes"
vector 50 Net80211.host[0].wlan[0].mac packetReceivedFromUpper:vector(packetBytes) ETV
attr interpolationmode none
attr recordingmode vector(packetBytes)
attr title "packets received from upper layer, packetBytes"
vector 51 Net80211.host[0].wlan[0].mac.dcf.channelAccess.pendingQueue incomingPacketLengths:vector ETV
attr interpolationmode none
attr recordingmode vector
attr source packetLength(packetPushStarted)
attr title "incoming packet lengths"
attr unit b
vector 52 Net80211.host[0].wlan[0].mac.dcf.channelAccess.pendingQueue incomingDataRate:vector ETV
attr interpolationmode linear
attr recordingmode vector
attr source throughput(packetPushStarted)
attr title "incoming datarate"
attr unit bps
vector 53 Net80211.host[0].wlan[0].mac.dcf.channelAccess.pendingQueue queueLength:vector ETV
attr autoWarmupFilter false
attr interpolationmode sample-hold
attr recordingmode vector
attr source "warmup(atomic(constant0(packetPushEnded) + count(packetPushStarted) - count(packetPulled) - count(packetRemoved) - count(packetDropped)))"
attr title "queue length"
attr unit pk
vector 54 Net80211.host[0].wlan[0].mac.dcf.channelAccess.pendingQueue queueBitLength:vector ETV
attr autoWarmupFilter false
attr interpolationmode sample-hold
attr recordingmode vector
attr source "warmup(atomic(constant0(packetPushEnded) + sum(packetLength(packetPushStarted)) - sum(packetLength(packetPulled)) - sum(packetLength(packetRemoved)) - sum(packetLength(packetDropped))))"
attr title "queue bit length"
attr unit b
vector 55 Net80211.host[0].wlan[0].mac.dcf.channelAccess.contention backoffPeriodGenerated:vector ETV
attr interpolationmode none
attr recordingmode vector
attr title "backoff periods"
vector 56 Net80211.host[0].wlan[0].mac.dcf.channelAccess.pendingQueue queueingTime:vector ETV
attr interpolationmode none
attr recordingmode vector
attr source queueingTime(packetPulled)
attr title "queueing times"
attr unit s
vector 57 Net80211.host[0].wlan[0].mac.dcf.channelAccess.pendingQueue outgoingPacketLengths:vector ETV
attr interpolationmode none
attr recordingmode vector
attr source packetLength(packetPulled)
attr title "outgoing packet lengths"
attr unit b
vector 58 Net80211.host[0].wlan[0].mac.dcf.channelAccess.pendingQueue outgoingDataRate:vector ETV
attr interpolationmode linear
attr recordingmode vector
attr source throughput(packetPulled)
attr title "outgoing datarate"
attr unit bps
vector 59 Net80211.host[0].wlan[0].mac.dcf datarateSelected:vector ETV
attr interpolationmode none
attr recordingmode vector
attr title "datarates selected"
vector 60 Net80211.host[0].wlan[0].mac packetSentToLower:vector(packetBytes) ETV
attr interpolationmode none
attr recordingmode vector(packetBytes)
attr title "packets sent to lower layer, packetBytes"
vector 61 Net80211.host[0].wlan[0].radio transmissionState:vector ETV
attr interpolationmode sample-hold
attr recordingmode vector
attr source transmissionStateChanged
attr title "Radio transmission state"
vector 62 Net80211.host[0].wlan[0].mac.dcf packetSentToPeer:vector(packetBytes) ETV
attr interpolationmode none
attr recordingmode vector(packetBytes)
attr title "packets sent, packetBytes"
vector 63 Net80211.host[0].wlan[0].mac.dcf packetSentToPeerUnicast:vector(packetBytes) ETV
attr interpolationmode none
attr recordingmode vector(packetBytes)
attr source ieee80211Unicast(packetSentToPeer)
attr title "packets sent: unicast, packetBytes"
vector 64 Net80211.host[0].wlan[0].mac.dcf packetSentToPeerWithoutRetry:vector(packetBytes) ETV
attr interpolationmode none
attr recordingmode vector(packetBytes)
attr source ieee80211NotRetry(packetSentToPeer)
attr title "packets sent: without retry, packetBytes"
vector 65 Net80211.host[0].wlan[0].mac.rx nav:vector ETV
attr interpolationmode linear
attr recordingmode vector
attr source navChanged
attr title "network allocation vector"
vector 66 Net80211.host[1].wlan[0].mac packetReceivedFromLower:vector(packetBytes) ETV
attr interpolationmode none
attr recordingmode vector(packetBytes)
attr title "packets received from lower layer, packetBytes"
vector 67 Net80211.host[1].wlan[0].mac.dcf packetReceivedFromPeer:vector(packetBytes) ETV
attr interpolationmode none
attr recordingmode vector(packetBytes)
attr title "packets received, packetBytes"
vector 68 Net80211.host[1].wlan[0].mac.dcf packetReceivedFromPeerUnicast:vector(packetBytes) ETV
attr interpolationmode none
attr recordingmode vector(packetBytes)
attr source ieee80211Unicast(packetReceivedFromPeer)
attr title "packets received: unicast, packetBytes"
vector 69 Net80211.host[1].wlan[0].mac.dcf packetReceivedFromPeerWithoutRetry:vector(packetBytes) ETV
attr interpolationmode none
attr recordingmode vector(packetBytes)
attr source ieee80211NotRetry(packetReceivedFromPeer)
attr title "packets received: without retry, packetBytes"
vector 70 Net80211.host[1].wlan[0].mac packetSentToUpper:vector(packetBytes) ETV
attr interpolationmode none
attr recordingmode vector(packetBytes)
attr title "packets sent to upper layer, packetBytes"
vector 71 Net80211.host[1].wlan[0].mac.dcf packetSentToPeerUnicast:vector(packetBytes) ETV
attr interpolationmode none
attr recordingmode vector(packetBytes)
attr source ieee80211Unicast(packetSentToPeer)
attr title "packets sent: unicast, packetBytes"
vector 72 Net80211.host[0].wlan[0].mac.dcf packetReceivedFromPeerUnicast:vector(packetBytes) ETV
attr interpolationmode none
attr recordingmode vector(packetBytes)
attr source ieee80211Unicast(packetReceivedFromPeer)
attr title "packets received: unicast, packetBytes"
vector 73 Net80211.host[0].wlan[0].mac.dcf.channelAccess.inProgressFrames queueingTime:vector ETV
attr interpolationmode none
attr recordingmode vector
attr source queueingTime(packetDequeued)
attr title "queueing times"
vector 74 Net80211.host[1].wlan[0].mac.rx nav:vector ETV
attr interpolationmode linear
attr recordingmode vector
attr source navChanged
attr title "network allocation vector"
vector 75 Net80211.host[1].app[0] pingRxSeq:vector ETV
attr interpolationmode none
attr recordingmode vector
attr title "ping rx seq"
vector 76 Net80211.host[1].app[0] rtt:vector ETV
attr interpolationmode none
attr recordingmode vector
attr title "ping round-trip time"
attr unit s
vector 77 Net80211.host[1].app[0] numLost:vector ETV
attr interpolationmode none
attr recordingmode vector
attr title "pings lost"
vector 78 Net80211.host[1].app[1] pingRxSeq:vector ETV
attr interpolationmode none
attr recordingmode vector
attr title "ping rx seq"
vector 79 Net80211.host[1].app[1] rtt:vector ETV
attr interpolationmode none
attr recordingmode vector
attr title "ping round-trip time"
attr unit s
vector 80 Net80211.host[1].app[1] numLost:vector ETV
attr interpolationmode none
attr recordingmode vector
attr title "pings lost"
vector 81 Net80211.host[1].wlan[0].mac.dcf packetSentToPeerWithRetry:vector(packetBytes) ETV
attr interpolationmode none
attr recordingmode vector(packetBytes)
attr source ieee80211Retry(packetSentToPeer)
attr title "packets sent: with retry, packetBytes"
vector 82 Net80211.host[1].wlan[0].mac.dcf packetDrop:vector(packetBytes) ETV
attr interpolationmode none
attr recordingmode vector(packetBytes)
attr source packetDropped
attr title "packet drops, packetBytes"
vector 83 Net80211.host[1].wlan[0].mac.dcf packetDropRetryLimitReached:vector(packetBytes) ETV
attr interpolationmode none
attr recordingmode vector(packetBytes)
attr source packetDropReasonIsRetryLimitReached(packetDropped)
attr title "packet drops: retry limit reached, packetBytes"
vector 84 Net80211.host[1].wlan[0].mac packetDrop:vector(packetBytes) ETV
attr interpolationmode none
attr recordingmode vector(packetBytes)
attr source packetDropped
attr title "packet drops, packetBytes"
vector 85 Net80211.host[1].wlan[0].mac packetDropRetryLimitReached:vector(packetBytes) ETV
attr interpolationmode none
attr recordingmode vector(packetBytes)
attr source packetDropReasonIsRetryLimitReached(packetDropped)
attr title "packet drops: retry limit reached, packetBytes"
vector 86 Net80211.host[0].wlan[0].mac.dcf packetReceivedFromPeerWithRetry:vector(packetBytes) ETV
attr interpolationmode none
attr recordingmode vector(packetBytes)
attr source ieee80211Retry(packetReceivedFromPeer)
attr title "packets received: with retry, packetBytes"
0	733	21.195892801174	1
0	754	21.196600385009	0
0	781	21.19789038499	1
0	803	21.198821968636	0
0	845	21.372379248636	1
0	867	21.37331081453	0
0	919	22.196254720572	1
0	941	22.197186143182	0
0	980	22.372359170456	1
0	1002	22.373290580162	0
0	1054	23.196314681781	1
0	1076	23.197246026775	0
0	1115	23.372359129834	1
0	1137	23.373290458266	0
0	1188	24.196334650271	1
0	1210	24.197265932333	0
0	1249	24.372499103896	1
0	1271	24.373430380534	0
0	1323	25.196234608382	1
0	1345	25.197165806615	0
0	1383	25.372419059046	1
0	1405	25.373350245949	0
0	1458	26.196254614866	1
0	1480	26.197185826282	0
0	1517	26.372459079493	1
0	1539	26.373390307507	0
0	1592	27.196294644349	1
0	1614	27.197225914549	0
0	1651	27.372499096643	1
0	1674	27.37343035875	0
0	1726	28.196254622051	1
0	1748	28.197185847662	0
0	1786	28.372379074343	1
0	1809	28.373310291848	0
0	1860	29.196234610392	1
0	1882	29.197165812728	0
0	1921	29.372399065858	1
0	1943	29.373330266449	0
0	1994	30.196374605624	1
0	2016	30.197305798425	0
0	2056	30.372479059898	1
0	2078	30.373410248472	0
0	2130	31.196274608905	1
0	2152	31.19720580833	0
0	2191	31.37243906846	1
0	2213	31.373370274318	0
0	2264	32.19623462732	1
0	2286	32.197165863575	0
0	2325	32.372439086941	1
0	2347	32.373370329762	0
0	2400	33.196334651554	1
0	2422	33.197265936343	0
0	2461	33.372359115054	1
0	2483	33.373290414159	0
0	2534	34.196254694918	1
0	2556	34.197186066444	0
0	2595	34.372439127187	1
0	2617	34.37337045052	0
0	2668	35.196274636733	1
0	2690	35.197205891565	0
0	2729	35.372499093653	1
0	2751	35.373430349878	0
0	2803	36.19625466496	1
0	2825	36.197185976629	0
0	2863	36.372499133793	1
0	2885	36.373430470482	0
0	2937	37.196254747008	1
0	2959	37.197186222842	0
0	2997	37.372479220278	1
0	3019	37.373410730004	0
0	3072	38.196294823005	1
0	3094	38.197226450841	0
0	6335	56.196314790121	1
0	6357	56.197246351654	0
0	6395	56.372399229513	1
0	6417	56.37333075717	0
0	6469	57.196254703792	1
0	6491	57.197186092746	0
0	6529	57.372359147721	1
0	6551	57.373290511871	0
0	6604	58.196314634566	1
0	6626	58.197245885084	0
0	6665	58.37241908101	1
0	6687	58.373350311823	0
0	6738	59.196334601763	1
0	6760	59.197265786793	0
0	6799	59.372459054551	1
0	6821	59.373390232487	0
0	6873	60.196234588472	1
0	6895	60.197165747015	0
0	6933	60.372359047147	1
0	6955	60.373290210364	0
0	7008	61.196254611244	1
0	7030	61.197185815384	0
0	7068	61.372359073268	1
0	7090	61.373290288778	0
0	7142	62.196234645687	1
0	7164	62.197165918749	0
0	7203	62.37235911045	1
0	7225	62.373290400368	0
0	7276	63.196314698699	1
0	7298	63.197246077827	0
0	7337	63.372379170355	1
0	7359	63.373310580194	0
0	7410	64.196374782699	1
0	7432	64.197306329733	0
0	7471	64.372419243208	1
0	7493	64.373350798578	0
0	7544	65.196354806378	1
0	7566	65.197286400768	0
0	7605	65.372379266888	1
0	7627	65.373310869616	0
0	7678	66.196274830068	1
0	7700	66.197206471834	0
0	7739	66.372459288362	1
0	7761	66.37339093395	0
0	7813	67.196334824699	1
0	7835	67.197266455637	0
0	7874	67.372459279382	1
0	7896	67.373390907007	0
0	7948	68.196314814575	1
0	7970	68.197246425257	0
0	8008	68.372459268829	1
0	8030	68.373390875343	0
0	8083	69.196274811018	1
0	8105	69.197206414674	0
0	8142	69.372419270967	1
0	8164	69.373350881848	0
0	11888	90.237294838224	1
0	11910	90.238226495808	0
0	11947	90.37245927479	1
0	11969	90.373390892843	0
0	12022	91.196234729982	1
0	12044	91.197166171297	0
0	12081	91.372479172228	1
0	12103	91.373410585345	0
0	12156	92.196234658325	1
0	12178	92.19716595655	0
0	12215	92.372479115338	1
0	12238	92.373410414913	0
0	12290	93.196274679965	1
0	12312	93.19720602164	0
0	12350	93.372399147968	1
0	12373	93.373330512976	0
0	12424	94.196374760675	1
0	12446	94.197306264039	0
0	12485	94.372419244338	1
0	12507	94.373350802336	0
0	16973	119.23249483846	1
0	16995	119.233426496828	0
0	17032	119.372499289212	1
0	17054	119.373430936411	0
0	17107	120.196334812293	1
0	17129	120.197266418442	0
0	17167	120.372379268469	1
0	17189	120.373310874293	0
0	17241	121.196354812663	1
0	17263	121.197286419568	0
0	17302	121.372479269898	1
0	17324	121.373410878598	0
0	17376	122.196354821811	1
0	17398	122.197286447048	0
0	17437	122.372399291459	1